,formula,pearson_symbol,space_group,enthalpy_formation_exp,mpid,energy_formation_mp,oqmdid,energy_formation_oqmd
1127,Ru2ZrAl,cP2,Pm-3m,-0.6685,,,,
1128,Sc5Pb3,hP16,P63/mcm,-0.6353,mp-510209,-0.47463249,,
1129,PbTi4,hP8,P63/mmc,-0.172,,,,
1130,Y5Pb3,hP16,P63/mcm,-0.6716,,,30931,-0.59163632
1131,Zr5Pb3,hP16,P63/mcm,-0.5244,mp-681992,-0.14045965,,
1132,Nb3Pb,cP8,Pm-3n,-0.1078,mp-22068,0.13181374,17740,0.11097907
1133,RhPb,hP6,P6/mmm,-0.171,mp-442,-0.09252528,,
1134,Pd3Pb,cP4,Pm-3m,-0.3068,mp-20849,-0.30894702,7834,-0.29965135
1135,PtPb,hP4,P63/mmc,-0.3596,mp-21380,0.02424395,669812,0.07791212
1136,CuSnRh2,cF16,Fm-3m,-0.3016,mp-30595,-0.35656496,17162,-0.38480311
1137,Rh2FeAl,cP2,Pm-3m,-0.5027,,,,
1138,Rh2FeGa,cP2,Pm-3m,-0.3223,,,,
1139,FeSnRh2,tI8,I4/mmm,-0.2995,mp-1018062,-0.305515,,
1140,Rh2MnAl,cP2,Pm-3m,-0.7504,,,,
1141,Rh2MnGa,cP2,Pm-3m,-0.5731,,,,
1142,Rh2MnIn,cP2,Pm-3m,-0.3659,,,,
1143,MnGeRh2,cF16,Fm-3m,-0.57,mp-4664,-0.44292375,647271,-0.44947884
1144,MnSnRh2,cF16,Fm-3m,-0.4156,mp-4990,-0.44010532,17688,-0.46709352
1145,Rh2TiAl,cP2,Pm-3m,-1.0116,,,,
1146,Rh2TiGa,cP2,Pm-3m,-0.8188,,,,
1147,Rh2TiSn,tI8,I4/mmm,-0.7742,,,,
1148,VSnRh2,tI8,I4/mmm,-0.4643,mp-669918,-0.41636787,18063,-0.43863856
1149,VGaNi2,cF16,Fm-3m,-0.2228,mp-30658,-0.28814787,17275,-0.28700053
1150,VNi2Sn,cF16,Fm-3m,-0.2508,mp-20864,-0.1140145,17820,-0.1417274
1151,VFe2Sn,cF16,Fm-3m,-0.0383,mp-636359,0.04401775,17233,-0.01862392
1152,Fe2VAl,cP2,Pm-3m,-0.2487,,,,
1153,Fe2NiAl,cP2,Pm-3m,-0.3203,,,,
1154,Fe2CuAl,cP2,Pm-3m,-0.2425,,,,
1155,Fe2MnAl,cP2,Pm-3m,-0.0943,,,,
1156,Mn2RuSi,,,-0.3835,,,,
1157,Mn2SnRu,cF16,F-43m,-0.1803,mp-999557,0.07886879,,
1158,Mn0.2Ni0.55Sn0.25,cF16,Fm-3m,-0.2757,,,,
1159,Mn0.30Ni0.45Sn0.25,cF16,Fm-3m,-0.285,,,,
1160,Mn0.35Ni0.4Sn0.25,cF16,Fm-3m,-0.2757,,,,
1161,Mn3Ni5Sn2,cF16,Fm-3m,-0.2176,,,,
1162,Mn0.35Ni0.5Sn0.15,cF16,Fm-3m,-0.2083,,,,
1163,TiGaNi2,cF16,Fm-3m,-0.4405,mp-30657,-0.53975432,17273,-0.56136537
1164,TiInNi2,cF16,Fm-3m,-0.2954,mp-22463,-0.34461536,55528,-0.36462902
1165,TiNi2Sn,cF16,Fm-3m,-0.485,mp-3740,-0.43329163,17816,-0.47901202
1166,MnAlIr2,cF16,Fm-3m,-0.6716,mp-864950,-0.57404936,458527,-0.5817824
1167,MnGaIr2,cF16,Fm-3m,-0.2218,mp-865088,-0.33127356,457980,-0.34589253
1168,InMnPt2,,,-0.484,,,,
1169,CuInRh2,cP2,Pm-3m,-0.2322,,,,
1170,MnSnAu,cF12,F-43m,-0.5016,mp-22027,-0.0448774,647441,-0.07865257
1171,TiCoSn,cF12,F-43m,-0.4415,mp-20453,0.31134766,860363,-0.37599542
1172,MnGaIr,cF12,F-43m,-0.4239,,,684862,0.06719219
1173,MnSnIr,cF12,F-43m,-0.3047,mp-11480,0.29446035,17497,0.2571392
1174,ZrSnIr,hP18,P-62c,-0.9235,mp-607139,-0.73836035,24958,-0.77341546
1175,HfNiSn,cF12,F-43m,-0.6488,mp-924128,-0.63230214,667584,0.13071924
1176,TiNiSn,cF12,F-43m,-0.5452,mp-924130,-0.52801859,115027,-0.58058168
1177,ZrNiSn,cF12,F-43m,-0.7214,mp-924129,-0.68398515,676556,-0.71904526
1178,HfSnPd,cF12,F-43m,-0.7089,mp-11869,-0.72360596,18376,-0.7517317
1179,PdSnZr,cP2,Pm-3m,-0.8975,,,,
1180,HfSnPt,cF12,F-43m,-1.024,mp-20889,-0.27783584,566182,-1.01509825
1181,MnGaPt,hP6,P63/mmc,-0.6084,mp-569151,-0.45781977,17256,-0.4582049
1182,MnSnPt,cF12,F-43m,-0.5783,mp-21418,-0.33896264,17683,-0.36926039
1183,TiSnPt,cF12,F-43m,-0.9701,mp-30847,-0.83028347,18005,-0.87088914
1184,ZrSnPt,cF12,F-43m,-1.0872,mp-961713,-1.02254305,566429,-1.05425069
1185,Co0.25Ni1.75MnSn,cF16,Fm-3m,-0.1969,,,,
1186,Co0.125Mn0.25Ni0.375Sn0.25,cF16,Fm-3m,-0.1855,,,,
1187,Co0.75Ni1.25MnSn,cF16,Fm-3m,-0.2259,,,,
1188,CoNiMnSn,cF16,Fm-3m,-0.2094,,,,
1189,Co1.25Ni0.25MnSn,cF16,Fm-3m,-0.2197,,,,
1190,Co0.375Mn0.25Ni0.125Sn0.25,cF16,Fm-3m,-0.2384,,,,
1191,Co1.75Ni0.25MnSn,cF16,Fm-3m,-0.2581,,,,
1192,Ni2Mn0.25Ti0.75Sn,cF16,Fm-3m,-0.4353,,,,
1193,Ni2Mn0.5Ti0.5Sn,cF16,Fm-3m,-0.3451,,,,
1194,Ni2Mn0.75Ti0.25Sn,cF16,Fm-3m,-0.3451,,,,
1195,Ni0.25Pd1.75MnSn,cF16,Fm-3m,-0.5369,,,,
1196,Mn0.25Ni0.125Pd0.375Sn0.25,cF16,Fm-3m,-0.4871,,,,
1197,Mn0.25Ni0.1875Pd0.3125Sn0.25,cF16,Fm-3m,-0.4394,,,,
1198,NiPdMnSn,cF16,F-43m,-0.3887,,,,
1199,Mn0.25Ni0.3125Pd0.1875Sn0.25,cF16,Fm-3m,-0.3192,,,,
1200,Mn0.25Ni0.375Pd0.125Sn0.25,cF16,Fm-3m,-0.2985,,,,
1201,Mn0.25Ni0.4375Pd0.0625Sn0.25,cF16,Fm-3m,-0.2985,,,,
1202,In0.05Mn0.25Ni0.5Sn0.2,cF16,Fm-3m,-0.2353,,,,
1203,In0.1Mn0.25Ni0.5Sn0.15,cF16,Fm-3m,-0.2643,,,,
1204,In0.15Mn0.25Ni0.5Sn0.1,cF16,Fm-3m,-0.2104,,,,
1205,In0.2Mn0.25Ni0.5Sn0.05,cF16,F-43m,-0.2674,,,,
1206,Al0.05Mn0.25Ni0.5Sn0.2,cF16,Fm-3m,-0.2684,,,,
1207,Al0.1Mn0.25Ni0.5Sn0.15,cF16,Fm-3m,-0.2954,,,,
1208,Al0.15Mn0.25Ni0.5Sn0.1,cP2,Pm-3m,-0.3337,,,,
1209,Al0.2Mn0.25Ni0.5Sn0.05,cP2,Pm-3m,-0.3296,,,,
1210,Ni2Mn0.2V0.8Sn,cF16,Fm-3m,-0.284,,,,
1211,Ni2Mn0.4V0.6Sn,cF16,Fm-3m,-0.2964,,,,
1212,Mn0.15Ni0.5Sn0.25V0.1,cF16,Fm-3m,-0.3285,,,,
1213,Mn0.2Ni0.5Sn0.25V0.05,cF16,Fm-3m,-0.2415,,,,
1214,Fe0.25Ni1.75MnSn,cF16,Fm-3m,-0.2612,,,,
1215,Fe0.125Mn0.25Ni0.375Sn0.25,cF16,Fm-3m,-0.2757,,,,
1216,Fe0.75Ni1.25MnSn,cF16,Fm-3m,-0.1814,,,,
1217,FeNiMnSn,cF16,Fm-3m,-0.1057,,,,
1218,Cu0.25Ni1.75MnSn,cF16,Fm-3m,-0.2384,,,,
1219,Cu0.125Mn0.25Ni0.375Sn0.25,cF16,Fm-3m,-0.2881,,,,
1220,Fe0.1875Mn0.25Ni0.3125Sn0.25,cF16,Fm-3m,-0.2747,,,,
1221,CuNiMnSn,cF16,Fm-3m,-0.2633,,,,
1222,Cu0.3125Mn0.25Ni0.1875Sn0.25,cF16,Fm-3m,-0.2881,,,,
1223,Cu0.375Mn0.25Ni0.125Sn0.25,cF16,Fm-3m,-0.2747,,,,
1224,Cu1.75Ni0.25MnSn,cF16,Fm-3m,-0.2757,,,,
1225,Ge0.05Mn0.25Ni0.5Sn0.2,cF16,Fm-3m,-0.2218,,,,
1226,Ge0.1Mn0.25Ni0.5Sn0.15,cF16,Fm-3m,-0.2829,,,,
1227,Ge0.15Mn0.25Ni0.5Sn0.1,cF16,Fm-3m,-0.2498,,,,
1228,Ge0.2Mn0.25Ni0.5Sn0.05,cF16,Fm-3m,-0.3389,,,,
1229,Ni2MnSi0.2Sn0.8,cF16,Fm-3m,-0.2446,,,,
1230,Ga0.05Mn0.25Ni0.5Sn0.2,cF16,Fm-3m,-0.2477,,,,
1231,Ga0.1Mn0.25Ni0.5Sn0.15,cF16,Fm-3m,-0.2995,,,,
1232,Ga0.15Mn0.25Ni0.5Sn0.1,cF16,Fm-3m,-0.3078,,,,
1233,Ga0.2Mn0.25Ni0.5Sn0.05,cF16,Fm-3m,-0.2892,,,,
1234,Ce5Pb3,hP16,P63/mcm,-0.7835,,,690179,-0.5320109
1235,Pr5Pb3,hP16,P63/mcm,-0.8001,,,,
1236,Nd5Pb3,hP16,P63/mcm,-0.7773,,,30804,-0.54425795
1237,Sm5Pb3,hP16,P63/mcm,-0.7929,,,,
1238,Gd5Pb3,hP16,P63/mcm,-0.798,,,30399,-0.55242522
1239,Tb5Pb3,hP16,P63/mcm,-0.7379,,,30923,-0.13671797
1240,Dy5Pb3,hP16,P63/mcm,-0.7887,mp-569760,-0.54462748,29904,-0.54011757
1241,Ho5Pb3,hP16,P63/mcm,-0.7452,mp-30730,-0.53146096,17466,-0.53073424
1242,Er5Pb3,hP16,P63/mcm,-0.7794,,,30023,-0.5183237
1243,Tm5Pb3,hP16,P63/mcm,-0.7939,,,30928,-0.49914195
1244,Lu5Pb3,hP16,P63/mcm,-0.7752,,,30697,-0.46361792
1245,Li17Sn4,cF420,F-43m,-0.4156,mp-573471,-0.34836755,22905,-0.35750635
1246,AgCa3,oS36,Cmcm,-0.1223,,,,
1247,Cu2NiSn,cF16,Fm-3m,-0.1461,mp-4367,0.04125642,19462,0.00643917
1248,Cu0.6Ni0.15Sn0.25,cF16,Fm-3m,-0.1213,,,,
1249,Cu0.4Ni0.35Sn0.25,cF16,Fm-3m,-0.1679,,,,
1250,Cu0.3Ni0.45Sn0.25,cF16,Fm-3m,-0.1897,,,,
1251,Cu0.12Ni0.63Sn0.25,oS12,Cmcm,-0.2239,,,,
1252,Cu0.05Ni0.7Sn0.25,hP8,P63/mmc,-0.2415,,,,
1253,Cu0.3Ni0.29Sn0.41,hP6,P63/mmc,-0.229,,,,
1254,Cu0.2Ni0.39Sn0.41,hP6,P63/mmc,-0.2705,,,,
1255,Cu0.1Ni0.49Sn0.41,hP6,P63/mmc,-0.2995,,,,
1256,Cu0.275Ni0.27Sn0.455,hP6,P63/mmc,-0.1886,,,,
1257,Cu0.375Ni0.17Sn0.455,hP6,P63/mmc,-0.1679,,,,
1258,FeGe,hP6,P6/mmm,-0.1613,mp-22478,-0.12579344,647200,-0.12767187
1259,FeGe2,tI12,I4/mcm,-0.3823,mp-21117,-0.06049156,7790,-0.06497736
1260,AlLi,cF16,Fd-3m,-0.2145,mp-1067,-0.17935152,2012,-0.1861232
1261,AlLi,cF16,Fd-3m,,mp-1067,-0.17935152,2012,-0.1861232
1262,Al2Li3,hR15,R-3m,-0.198,mp-16506,-0.18145293,10488,-0.19199537
1263,Al4Li9,mS26,C12/m1,-0.1565,mp-568404,-0.15599208,,
1264,SmMg,cP2,Pm-3m,-0.1917,mp-2558,-0.10785642,90153,-0.1044123
1265,SmMg2,cF24,Fd-3m,-0.1658,mp-529,-0.09464138,17651,-0.09422897
1266,SmMg3,cF16,Fm-3m,-0.1244,mp-30779,-0.110229,17652,-0.10948037
1267,Mg5Sm,cF448,F-43m,-0.0881,,,,
1268,Mg41Sm5,tI92,I4/m,-0.057,,,,
1269,Ni3Ge,cP4,Pm-3m,,mp-21008,-0.2918224,17342,-0.29969984
1270,Ge3Ni5,hP6,P63/mmc,,,,,
1271,Ge2Ni3,hP6,P63/mmc,,,,,
1272,NiGe,oP8,Pnma,,mp-1099,-0.30645184,646855,-0.31421743
1273,AlNd3,hP8,P63/mmc,-0.3131,,,,
1274,NbCr2,cF24,Fd-3m,-0.0301,mp-548,-0.03087492,19373,-0.04063231
1275,NbFe2,hP12,P63/mmc,-0.141,mp-568901,-0.12231512,30227,-0.12212013