,formula,pearson_symbol,space_group,enthalpy_formation_exp,mpid,energy_formation_mp,oqmdid,energy_formation_oqmd
396,YRh,cP2,Pm-3m,-0.7887,mp-191,-0.85827792,18083,-0.84222032
397,YRh2,cF24,Fd-3m,-0.6778,mp-921,-0.74091214,18084,-0.73874162
398,ZrRh,cP2,Pm-3m,-0.7866,mp-2808,-0.73091778,90794,-0.75268252
399,RhZr,,,-0.8188,,,,
400,URh3,cP4,Pm-3m,-0.7224,mp-1150,-0.66664515,18078,-0.67258111
401,TiRh,cP2,Pm-3m,-0.741,mp-11563,-0.71770692,18073,-0.74982654
402,TiRh,mP4,P12/m1,-0.7711,,,755406,-0.76142264
403,Ru2Tb,hP12,P63/mmc,-0.2446,,,,
404,Ru2Tb5,,,-0.3099,,,,
405,Ru2.Y5,mS28,C12/c1,-0.2829,,,,
406,ZrRu,cP2,Pm-3m,-0.712,mp-214,-0.66012382,116234,-0.64287548
407,TiRu,cP2,Pm-3m,-0.798,mp-592,-0.7733,94574,-0.78846466
408,URu3,cP4,Pm-3m,-0.3213,mp-1263,-0.32529303,18098,-0.32385064
409,HfRu,cP2,Pm-3m,-0.9514,mp-2802,-0.8331391,17389,-0.81247741
410,Fe2Sc,hP12,P63/mmc,-0.1161,,,,
411,ScCo2,cF24,Fd-3m,-0.3368,mp-253,-0.35023303,19393,-0.36189395
412,Sc2Co,tI12,I4/mcm,-0.2767,mp-30562,-0.26004219,17119,-0.26502967
413,ScNi,cP2,Pm-3m,-0.4633,mp-11521,-0.50720254,17795,-0.51584033
414,ScNi2,cF24,Fd-3m,-0.4457,mp-850,-0.52315748,17796,-0.52449873
415,ScRu,cP2,Pm-3m,-0.4612,mp-30867,-0.54169358,18090,-0.53324862
416,ScRh,cP2,Pm-3m,-0.9794,mp-1780,-1.0415801,18054,-1.02687326
417,ScIr,cP2,Pm-3m,-0.9297,mp-1129,-1.05110554,17512,-1.03014618
418,ScRh3,cP4,Pm-3m,-0.5358,mp-635,-0.61301078,18055,-0.61530617
419,ScPd,cP2,Pm-3m,-0.9255,mp-2781,-0.90841484,17944,-0.90740356
420,ScIr2,cF24,Fd-3m,-0.6871,mp-2263,-0.74323264,17513,-0.7488888
421,ScPt,cP2,Pm-3m,-1.0862,mp-892,-1.22008164,17995,-1.22878817
422,ScPt3,cP4,Pm-3m,-0.9805,mp-481,-1.05328318,17997,-1.04670448
423,Tm4Pd5,,,-0.9639,,,,
424,AlB12,tP216,P41212,-0.1182,,,,
425,AlMn4,cP20,P4132,-0.1565,,,,
426,AlMo3,cP8,Pm-3n,-0.2311,mp-259,-0.22816317,10507,-0.23531136
427,Nb3Al,cP8,Pm-3n,-0.142,mp-796,-0.15861377,18709,-0.18075574
428,AlPt3,,,-0.6592,,,,
429,AlPd2,oP12,Pnma,-0.9048,mp-2824,-0.83438478,10552,-0.82853899
430,AlRe2,tI6,I4/mmm,-0.3068,mp-10909,-0.26518005,10574,-0.25623593
431,Ta2Al,tP30,P42/mnm,-0.2062,mp-639874,-0.06988478,658981,-0.25063347
432,Al2Mn3,hP2,P63/mmc,-0.2425,,,,
433,Y3Al2,tP20,P42/mnm,-0.4146,mp-16723,-0.35436314,,
434,AlFe,cP2,Pm-3m,-0.2436,mp-2658,-0.33204742,54708,-0.33175568
435,HfAl,oS8,Cmcm,-0.4135,mp-249,-0.40458448,18706,-0.40186183
436,AlNi,cP2,Pm-3m,-0.6042,mp-1487,-0.65864811,94913,-0.66944636
437,AlPt,cP8,P213,-1.0385,mp-10904,-1.04806983,10562,-1.0482982
438,AlPt,cP8,P213,-1.0116,mp-10904,-1.04806983,10562,-1.0482982
439,AlRh,cP2,Pm-3m,-1.1017,mp-364,-1.09471293,10576,-1.09711632
440,AlRu,cP2,Pm-3m,-0.6436,mp-542569,-0.6935834,18193,-0.66275832
441,ScAl,cP2,Pm-3m,-0.426,mp-331,-0.45145086,10539,-0.44950931
442,Al4C3,hR21,R-3m,-0.1897,mp-1591,-0.09141716,,
443,Al3Pt2,hP5,P-3m1,-1.0001,mp-10905,-0.99776218,10565,-1.0001106
444,Al8Cr5,tI6,I4/mmm,-0.1752,,,,
445,Al8V5,cI52,I-43m,-0.3524,,,,
446,ScAl1.78,cF24,Fd-3m,-0.4944,,,,
447,HfAl2,hP12,P63/mmc,-0.454,mp-12657,-0.44346682,19094,-0.44402344
448,LaAl2,cF24,Fd-3m,-0.5172,mp-2694,-0.49784908,10483,-0.49709903
449,LuAl2,cF24,Fd-3m,-0.5452,mp-1234,-0.48386232,10492,-0.48440793
450,Al2Os,tI6,I4/mmm,-0.4654,mp-7188,-0.56370358,10545,-0.5618871
451,YAl2,cF24,Fd-3m,-0.5224,mp-2322,-0.5314414,10612,-0.53390158
452,ZrAl2,hP12,P63/mmc,-0.54,mp-2772,-0.53810863,9987,-0.54013952
453,Al8Mo3,mS22,C12/m1,-0.342,,,,
454,Al11Re4,aP15,P-1,-0.3576,,,,
455,ZrAl3,tI16,I4/mmm,-0.5016,mp-395,-0.48454051,18198,-0.48795685
456,HfAl3,tI16,I4/mmm,-0.4208,mp-568718,-0.39534417,19074,-0.39629425
457,NbAl3,tI8,I4/mmm,-0.4198,mp-1842,-0.42336587,18710,-0.43058276
458,TaAl3,tI8,I4/mmm,-0.3099,mp-869,-0.31732438,644858,-0.31961342
459,TiAl3,tI8,I4/mmm,-0.3793,mp-542915,-0.39576492,18722,-0.41231514
460,Al3V,tI8,I4/mmm,-0.2881,mp-2554,-0.2886842,10604,-0.28231944
461,Al11La3,oI28,Immm,-0.3887,,,,
462,Al4W,mS30,C1m1,-0.1461,mp-30336,-0.15354977,10605,-0.15547335
463,Co2B,tI12,I4/mcm,-0.2011,mp-493,-0.24053737,5855,-0.20127126
464,Fe2B,tI12,I4/mcm,-0.2342,mp-1915,-0.31252032,7798,-0.31235674
465,Mn2B,tI12,I4/mcm,-0.3285,mp-20318,-0.39763521,67949,-0.39815569
466,Ni2B,tI12,I4/mcm,-0.2342,mp-2536,-0.28994333,7800,-0.29406372
467,BPt2,hP6,P63/mmc,-0.2073,,,,
468,CoB,oP8,Pnma,-0.3607,mp-20857,-0.40155458,5858,-0.41008351
469,FeB,oP8,Pnma,-0.3348,mp-20787,-0.37298173,5857,-0.37596999
470,MnB,oP8,Pnma,-0.371,mp-8365,-0.49912716,13802,-0.49958023
471,BMo,,,-0.2975,,,,
472,NiB,oS8,Cmcm,-0.2083,mp-14019,-0.2414927,5171,-0.24335188
473,NiB,oS8,Cmcm,-0.2145,mp-14019,-0.2414927,5171,-0.24335188
474,RhB1.1,hP4,P63/mmc,-0.3679,mp-567164,-0.38261772,,
475,RuB1.1,hP4,P63/mmc,-0.2301,,,,
476,B4Ir3,mS28,C12/c1,-0.2166,,,,
477,CrB2,hP3,P6/mmm,-0.4125,mp-374,-0.34044859,5847,-0.3372479
478,DyB2,hP3,P6/mmm,-0.313,mp-2057,-0.56534511,8332,-0.5618701
479,ErB2,hP3,P6/mmm,-0.2829,mp-1774,-0.62338387,647372,-0.62242526
480,HoB2,hP3,P6/mmm,-0.2892,mp-2267,-0.5948309,8366,-0.59305299
481,LuB2,hP3,P6/mmm,-0.3089,mp-11219,-0.69191694,115218,-0.68902248
482,MnB2,hP3,P6/mmm,-0.2187,mp-585,-0.28357077,8179,-0.2887995
483,NbB2,hP3,P6/mmm,-0.625,mp-450,-0.69347592,5806,-0.69505215
484,ReB2,hP6,P63/mmc,-0.2228,mp-1773,-0.42981648,4449,-0.42013953
485,ScB2,hP3,P6/mmm,-1.0603,mp-2252,-0.84106919,8428,-0.83846984
486,TaB2,hP3,P6/mmm,-0.5524,mp-1108,-0.652593,5807,-0.64900102
487,TbB2,hP3,P6/mmm,-0.3545,mp-965,-0.53102592,8471,-0.30809373
488,TiB2,hP3,P6/mmm,-1.1349,mp-1145,-1.05740636,5808,-1.06683324
489,TmB2,hP3,P6/mmm,-0.3171,mp-800,-0.65282273,8473,-0.65122261
490,VB2,hP3,P6/mmm,-0.7328,mp-1491,-0.74284597,109274,-0.73208942
491,YB2,hP3,P6/mmm,-0.37,mp-1542,-0.56479997,8475,-0.56358483
492,B5Gd2,mP28,P121/c1,-0.4467,,,,
493,B5Nd2,,,-0.4032,,,,
494,B5Os2,hP6,P63/mmc,-0.1182,,,,
495,B5Pd2,mS28,C12/c1,-0.2653,,,,
496,B5W2,hP12,P63/mmc,-0.1814,,,,
497,CeB4,tP20,P4/mbm,-0.5545,mp-1974,-0.62698238,4683,-0.51932182
498,LaB4,tP20,P4/mbm,-0.5255,mp-7283,-0.57170034,2155,-0.56834399
499,NdB4,tP20,P4/mbm,-0.5524,mp-1632,-0.5648665,19849,-0.56388366
500,PrB4,tP20,P4/mbm,-0.5503,mp-12569,-0.54672396,18748,-0.54576316
501,YB4,tP20,P4/mbm,-0.5421,mp-637,-0.59063889,5124,-0.58949615
502,LaB6,cP7,Pm-3m,-0.5928,mp-2680,-0.56401877,,
503,PrB6,cP7,Pm-3m,-0.5317,mp-12762,-0.48410568,,
504,C2Mn5,mS28,C12/c1,-0.0922,,,,
505,C2Mn5,mS28,C12/c1,-0.1036,,,,
506,C3Cr7,hP80,P63mc,-0.1461,,,,
507,C3Mn7,hP80,P63mc,-0.0943,,,,
508,Mo2C,oP16,Pbcn,-0.1202,mp-1552,-0.10295956,8050,-0.11555772
509,CSc2,cF48,Fd-3m,-0.4716,,,,
510,Y2C,hR9,R-3m,-0.3296,mp-1334,-0.29194155,4155,-0.29775347
511,C3V4,hP8,P63mc,-0.4177,,,,
512,TiC,cF8,Fm-3m,-0.9628,mp-631,-0.80734115,1949,-0.80412494
513,CeC2,tI6,I4/mmm,-0.2633,mp-2839,-0.1554227,13373,-0.08301998
514,DyC2,tI6,I4/mmm,-0.2964,mp-541840,-0.19310779,7901,-0.19727318
515,ErC2,tI6,I4/mmm,-0.2985,mp-1579,-0.19368365,4391,-0.20063332
516,GdC2,tI6,I4/mmm,-0.257,mp-12765,-0.16630952,19369,-0.18553698
517,HoC2,,,-0.2964,,,,
518,LaC2,tI6,I4/mmm,-0.2819,mp-2367,-0.16197667,5051,-0.16385663
519,LuC2,tI6,I4/mmm,-0.2767,mp-8371,-0.18638216,13888,-0.19246326
520,NdC2,tI6,I4/mmm,-0.3026,mp-2297,-0.11838131,53650,-0.12456444
521,PrC2,tI6,I4/mmm,-0.3047,mp-1995,-0.10019788,3666,-0.10602352
522,SmC2,tI6,I4/mmm,-0.2664,mp-12764,-0.14752258,19368,-0.15356634
523,TbC2,tI6,I4/mmm,-0.255,mp-2119,-0.18882349,13374,0.02651546
524,C2Tm,,,-0.3265,,,,
525,CeSi2,tI12,I4/mcm,-0.627,,,,
526,CeSi,oP8,Pnma,-0.7369,mp-21115,-0.65310562,18278,-0.71849747
527,Ce5Si3,tI32,I4/mcm,-0.5472,mp-570175,-0.54661531,29191,-0.55564635
528,Ga3Co,tP16,P42/mnm,-0.3047,mp-20559,-0.26603952,29254,-0.26709825
529,CoSi2,cF12,Fm-3m,-0.3617,mp-2379,-0.46811329,5256,-0.47477289
530,CoSi,cP8,P213,-0.511,mp-7577,-0.61459397,3604,-0.62430027
531,Co2Si,oP12,Pnma,-0.3928,mp-19905,-0.45288601,646168,-0.46466624
532,CrSi2,hP9,P6222,-0.2674,mp-1222,-0.36275147,,
533,CrSi,cP8,P213,-0.3545,mp-7576,-0.29522304,3602,-0.2884598
534,Cr5Si3,tI32,I4/mcm,-0.3482,mp-7506,-0.31502719,3178,-0.31060762
535,Cr3Ga,cP8,Pm-3n,-0.1223,mp-1231,-0.04884287,29544,-0.05522517
536,Cr3Si,cP8,Pm-3n,-0.2819,mp-729,-0.34850978,3600,-0.36159126
537,Cu3Si,,,-0.0632,,,,
538,DySi2,oI12,Imma,-0.5659,,,,
539,DySi,oP8,Pnma,-0.7141,mp-1182,-0.83304592,21014,-0.8317414
540,Dy5Si3,hP16,P63/mcm,-0.6633,mp-2836,-0.68672013,651409,-0.68469964
541,ErSi2,hP3,P6/mmm,-0.6488,mp-2145,-0.49372392,665784,-0.49122696
542,ErSi,oS8,Cmcm,-0.8799,mp-378,-0.82215116,2939,-0.8255611
543,Er5Si3,hP16,P63/mcm,-0.7328,mp-31167,-0.69769718,10339,-0.7014002
544,Ga3Fe,tP16,P42/mnm,-0.257,mp-636368,-0.23007081,30160,-0.23789909
545,FeSi,cP8,P213,-0.4001,mp-871,-0.51035913,6697,-0.51414325
546,GaMo3,cP8,Pm-3n,-0.172,mp-2377,-0.15113122,30299,-0.15670685
547,GaPd2,oP12,Pnma,-0.6675,mp-1869,-0.64677807,18584,-0.64203331
548,Ti2Ga,hP6,P63/mmc,-0.4042,mp-30671,-0.39903784,22484,-0.4449591
549,Zr2Ga,tI12,I4/mcm,-0.5535,mp-569833,-0.46617369,17131,-0.4660022
550,Nb5Ga3,tI32,I4/mcm,-0.2747,mp-570293,-0.3216266,30301,-0.3365402
551,Sc5Ga3,hP16,P63/mcm,-0.6156,mp-17332,-0.52132614,,
552,GaNi,cP2,Pm-3m,-0.4654,mp-1941,-0.36500987,89558,-0.37624769
553,GaPd,cP8,P213,-0.7421,,,23801,-0.65903422
554,GaRh,cP2,Pm-3m,-0.7587,mp-2444,-0.69359272,89616,-0.68984355
555,GaRu,cP2,Pm-3m,-0.3669,mp-22320,-0.32212428,17297,-0.29821966
556,YGa,oS8,Cmcm,-0.74,mp-11420,-0.66433596,30366,-0.66682175
557,Ga2Ru,oF24,Fddd,-0.4249,,,,
558,YGa2,hP3,P6/mmm,-0.7058,mp-1914,-0.6629153,30368,-0.66099664
559,Ga5V2,tP14,P4/mbm,-0.172,,,,
560,Ga3Rh,tP16,P42/mnm,-0.4654,,,,
561,TmGa3,cP4,Pm-3m,-0.5027,mp-1603,-0.49921012,19193,-0.50422251
562,GdSi2,oI12,Imma,-0.6115,,,,
563,GdSi,oP8,Pnma,-0.7835,mp-601371,-0.78330897,12494,-0.82500956
564,Gd5Si3,hP16,P63/mcm,-0.7048,,,30419,-0.65729056
565,HfSi,oP8,Pnma,-0.7348,mp-1042,-0.82072508,647082,-0.8201266
566,Hf3Si2,tP10,P4/mbm,-0.8291,mp-2105,-0.8034006,647083,-0.80117558
567,HoSi2,oI12,Imma,-0.6022,,,,
568,HoSi,oS8,Cmcm,-0.8385,mp-12899,-0.82723595,19859,-0.82907496
569,Ho5Si3,hP16,P63/mcm,-0.7732,mp-13236,-0.69273225,30562,-0.69430109
570,SiIr,oP8,Pnma,-0.6612,mp-1128,-0.68431045,3182,-0.69033796
571,SiIr,oP8,Pnma,-0.6675,mp-1128,-0.68431045,3182,-0.69033796
572,LaSi2,tI12,I4/mcm,-0.5887,,,14081,-0.66589192
573,LaSi,oP8,Pnma,-0.7659,mp-1860,-0.74327757,2938,-0.73829345
574,La3Si2,tP10,P4/mbm,-0.6384,mp-10162,-0.63776534,8508,-0.63053424
575,La5Si3,tI32,I4/mcm,-0.6229,mp-10961,-0.60975188,16378,-0.60340254
576,LuSi,oS8,Cmcm,-0.8115,mp-1001612,-0.79471601,31331,-0.79627164
577,Lu5Si3,hP16,P63/mcm,-0.7027,mp-11908,-0.70254819,31330,-0.70342489
578,MnSi,cP8,P213,-0.4084,mp-1431,-0.46536604,3603,-0.46425079
579,Mn5Si3,hP16,P63/mcm,-0.3524,mp-1111,-0.34849914,,
580,Si2Mo,tI6,I4/mmm,-0.4964,mp-2592,-0.490212,17715,-0.49665163
581,Si3Mo5,tI32,I4/mcm,-0.3959,mp-1332,-0.38982914,6653,-0.39820548
582,NbSi2,hP9,P6222,-0.5566,mp-2478,-0.54430792,,
583,Nb5Si3,tI32,I4/mcm,-0.6695,mp-13686,-0.66596324,3572,-0.67982951
584,NdSi2,oI12,Imma,-0.6426,,,,
585,NdSi,oP8,Pnma,-0.8157,mp-9967,-0.76401844,7934,-0.76616419
586,Nd5Si3,tI32,I4/mcm,-0.6457,mp-567735,-0.58656729,27253,-0.58972551
587,SiNi,oP8,Pnma,-0.4394,mp-351,-0.50192808,5883,-0.5038064
588,SiNi2,oP12,Pnma,-0.5244,mp-1118,-0.55259568,4675,-0.55906508
589,Ni5Si2,hP43,P321,-0.4674,,,,
590,Si3Os2,oP40,Pbcn,-0.3161,mp-16608,-0.45552864,83466,-0.45174752
591,SiOs,cP8,P213,-0.4146,mp-2488,-0.36805215,3181,-0.36359973
592,SiPd2,hP9,P-62m,-0.6685,mp-697068,-0.69371833,669944,-0.6909829
593,SiPd2,hP9,P-62m,-0.6654,mp-697068,-0.69371833,669944,-0.6909829
594,SiPd3,oP16,Pnma,-0.6001,mp-20622,-0.61338369,8197,-0.60600528
595,PrSi2,oI12,Imma,-0.6374,,,,
596,PrSi,oP8,Pnma,-0.8094,mp-9968,-0.74327973,7935,-0.74525461
597,Pr5Si3,tI32,I4/mcm,-0.7006,,,,
598,SiPt,oP8,Pnma,-0.6156,mp-696,-0.67142261,2257,-0.67066312
599,SiPt,oP8,Pnma,-0.6177,mp-696,-0.67142261,2257,-0.67066312
600,SiPt2,tI6,I4/mmm,-0.6395,mp-1299,-0.72375884,14060,-0.72264214
601,SiPt2,,,-0.6561,,,,
602,Re2Si,mP24,P121/c1,-0.1316,mp-669547,0.10865856,10376,-0.09513163
603,SiRh,oP8,Pnma,-0.7773,mp-818,-0.82274837,18901,-0.82411252
604,SiRh,,,-0.7856,,,,
605,SiRh2,oP12,Pnma,-0.6623,mp-20418,-0.72588414,8055,-0.73085926
606,Si3Ru2,oP40,Pbcn,-0.6291,mp-22192,-0.63734496,2149,-0.624669
607,SiRu,cP8,P213,-0.6022,mp-189,-0.65174517,14277,-0.63907988
608,SiRu,,,-0.6022,,,,
609,ScSi,oS8,Cmcm,-0.853,mp-9969,-0.83644904,7936,-0.83784269
610,Sc5Si3,hP16,P63/mcm,-0.9317,mp-7822,-0.76833573,4475,-0.76933428
611,V3Si,cP8,Pm-3n,-0.4809,mp-2567,-0.4647244,4182,-0.46975583
612,Sm5Si3,hP16,P63/mcm,-0.6954,,,31250,-0.61183675
613,Ta5Si3,tI32,I4/mcm,-0.3949,mp-1989,-0.61606373,3573,-0.61647648
614,Tb5Si3,hP16,P63/mcm,-0.6322,mp-206,-0.67495204,17347,-0.26112869
615,Ti5Si3,hP16,P63/mcm,-0.7649,mp-2108,-0.76599174,,
616,Tm5Si3,hP16,P63/mcm,-0.7887,,,31067,-0.70337537
617,V5Si3,tI32,I4/mcm,-0.6115,mp-568671,-0.58859846,31069,-0.57183864
618,Y5Si3,hP16,P63/mcm,-0.7431,mp-2538,-0.71907995,8194,-0.72101896
619,Y5Si3,hP16,P63/mcm,-0.8333,mp-2538,-0.71907995,8194,-0.72101896
620,Zr5Si3,hP16,P63/mcm,-0.7431,mp-568115,-0.81774496,31218,-0.81917994
621,Si4Ti5,oP36,Pnma,-0.8136,,,,
622,Si4Zr5,tP36,P41212,-0.9525,mp-1304,-0.90321937,3883,-0.90447382
623,SmSi,oP8,Pnma,-0.826,,,31066,-0.79741521
624,TbSi,oP8,Pnma,-0.8385,mp-1924,-0.8316249,4359,-0.50097379
625,TiSi,oP8,Pnma,-0.7524,mp-7092,-0.76805125,8102,-0.79083582
626,TmSi,oS8,Cmcm,-0.8924,,,31068,-0.81673222
627,YSi,oS8,Cmcm,-0.8364,mp-9972,-0.85029844,7939,-0.8523987
628,ZrSi,oP8,Pnma,-0.9794,mp-893,-0.93338872,3569,-0.9340726
629,Si2Sm,oI12,Imma,-0.6871,,,,
630,TaSi2,hP9,P6222,-0.4768,mp-517,-0.47875561,8153,-0.47784741
631,Si2Tb,oI12,Imma,-0.6374,,,,
632,TiSi2,oF24,Fddd,-0.5908,mp-2582,-0.55103089,1833,-0.57236762
633,TmSi2,hP3,P6/mmm,-0.6726,mp-772,-0.4725959,657436,-0.47019623
634,VSi2,hP9,P6222,-0.3887,mp-10711,-0.48601618,,
635,Si2W,tI6,I4/mmm,-0.2829,mp-1620,-0.34341414,5147,-0.3448632
636,YSi2,hP3,P6/mmm,-0.6405,mp-2568,-0.52999675,670808,-0.52655247
637,ZrSi2,oS12,Cmcm,-0.625,mp-1515,-0.65230484,3570,-0.6533262
638,CeIn3,cP4,Pm-3m,-0.5089,mp-20369,-0.41688439,29103,-0.48217938
639,PrIn3,cP4,Pm-3m,-0.5317,mp-20903,-0.47857438,11139,-0.48202635
640,NdIn3,cP4,Pm-3m,-0.5338,mp-21197,-0.47555777,11111,-0.47815617
641,SmIn3,cP4,Pm-3m,-0.5389,mp-19977,-0.46268878,11162,-0.46591877
642,GdIn3,cP4,Pm-3m,-0.5027,mp-20258,-0.43358645,30377,-0.44569283
643,TbIn3,cP4,Pm-3m,-0.5545,mp-20920,-0.4323234,11165,-0.26806531
644,DyIn3,cP4,Pm-3m,-0.4985,mp-20236,-0.4179685,31227,-0.41726646
645,Ho5In3,hP16,P63/mcm,-0.5203,,,30538,-0.37241795
646,Er5In3,hP16,P63/mcm,-0.4944,,,29991,-0.37016066
647,TmIn3,cP4,Pm-3m,-0.4923,mp-21177,-0.36591188,11173,-0.3670282
648,Lu5In3,hP16,P63/mcm,-0.5421,,,30575,-0.35227743
649,Cu51Zr14,hP68,P6/m,-0.2519,,,,
650,Cu3Pd,cP4,Pm-3m,-0.0788,mp-580357,-0.10879453,17159,-0.10493702
651,Cu51Hf14,hP68,P6/m,-0.2373,,,,
652,Cu3Pt,cP4,Pm-3m,-0.1119,mp-12086,-0.13770523,29766,-0.14090041
653,TiAg,tP4,P4/nmm,-0.0166,mp-1017985,-0.06492099,27645,-0.10027248
654,Ti2Ag,tI6,I4/mmm,-0.0238,mp-979115,-0.05569064,27647,-0.10437079
655,YAg2,tI6,I4/mmm,-0.2757,mp-999544,-0.32922003,27649,-0.33455439
656,ScAu2,tI6,I4/mmm,-0.8644,mp-1018148,-0.81646376,28211,-0.81625514
657,ScAu4,tI10,I4/m,-0.5939,,,28212,-0.54758362
658,AuMn,oP2,Pmmm,-0.2622,,,,
659,YAu2,tI6,I4/mmm,-0.8768,mp-1018113,-0.85966874,28232,-0.85953584
660,YAu3,oP8,Pmmn,-0.7162,,,28231,-0.713549
661,PdAu3,cP4,Fm-3m,-0.0819,,,313826,-0.04314195
662,ScMn2,hP12,P63/mmc,-0.2705,mp-2039,-0.14292699,18873,-0.13666327
663,Os11Sc4,cF120,Fm-3m,-0.2342,,,,
664,TiMn2,hP12,P63/mmc,-0.0891,mp-1949,-0.271193,17696,-0.28692448
665,HfV2,cF24,Fd-3m,-0.1731,mp-1043,0.03197413,643804,0.03389914
666,VIr,oS8,Cmmm,-0.2912,mp-569250,-0.5207884,17531,-0.52346627
667,HfFe2,,,-0.1275,,,,
668,Fe7Nb6,hR39,R-3m,-0.0643,,,,
669,NbCo3,hP24,P63/mmc,-0.0767,mp-977426,-0.14701269,,
670,Co3Ta,hP24,P63/mmc,-0.0881,,,,
671,YNi,oP8,Pnma,-0.341,mp-1364,-0.4360015,17852,-0.44546416
672,ScOs2,hP12,P63/mmc,-0.2042,mp-567612,-0.39309886,19315,-0.38791876
673,VCo3,hP24,P63/mmc,-0.0674,mp-542614,-0.17098186,31151,-0.18077774
674,V3Ir,cP8,Pm-3n,-0.3047,mp-2006,-0.49090709,17532,-0.49317772
675,YFe3,hR36,R-3m,-0.0176,,,30268,-0.06392285
676,YFe2,cF24,Fd-3m,-0.0021,mp-1570,-0.06311649,18348,-0.06298
677,NbFe2,hP12,P63/mmc,-0.0549,mp-568901,-0.12231512,30227,-0.12212013
678,NbCo2,cF24,Fd-3m,-0.0684,mp-670,-0.13615909,29408,-0.15548255
679,TaCo2,cF24,Fd-3m,-0.0653,mp-1799,-0.21619792,29506,-0.22813203
680,TaFe2,hP12,P63/mmc,-0.0653,mp-568077,-0.18944423,,
681,NbNi3,oP8,Pmmn,-0.1741,mp-1451,-0.28823706,30781,-0.29802735
682,TbCu2,oI12,Imma,-0.256,mp-1527,-0.26626757,23033,-0.04598186
683,Cu2Dy,oI12,Imma,-0.2529,,,,
684,HoCu2,oI12,Imma,-0.2591,mp-30584,-0.27565436,17147,-0.27657653
685,Cu2Er,oI12,Imma,-0.2798,,,,
686,Cu2Tm,oI12,Imma,-0.2425,,,,
687,TbCu5,,,-0.1907,,,,
688,DyCu5,,,-0.1627,,,,
689,HoCu5,,,-0.1793,,,,
690,Cu5Er,,,-0.1907,,,,
691,TmCu5,,,-0.1959,,,,
692,Cu5Lu,,,-0.1948,,,,
693,TbAu,oS8,Cmcm,-0.8965,mp-999141,-0.8814057,28223,-0.5498906
694,DyAu,,,-0.8644,,,,
695,ErAu,oP2,Pm-3m,-0.9349,mp-2442,-0.87936308,10720,-0.88506276
696,TmAu,,,-0.9618,,,,
697,TbAu2,tI6,I4/mmm,-0.8416,mp-570179,-0.86087666,10811,-0.63931355
698,DyAu2,tI6,I4/mmm,-0.8063,mp-11241,-0.86878179,10716,-0.86652412
699,HoAu2,tI6,I4/mmm,-0.8768,mp-990,-0.8741942,10738,-0.87478831
700,ErAu2,tI6,I4/mmm,-0.8903,mp-2466,-0.87975395,10721,-0.88130488
701,TmAu2,tI6,I4/mmm,-0.9494,mp-560,-0.8855729,10687,-0.88724459
702,LuAu2,tI6,I4/mmm,-0.9442,mp-1018152,-0.89031574,28185,-0.89017268
703,TbAu3,oP8,Pmmn,-0.6892,,,28224,-0.55416782
704,DyAu3,,,-0.6664,,,,
705,HoAu3,oP8,Pmmn,-0.6954,mp-30386,-0.72317647,10739,-0.72445413
706,ErAu3,,,-0.6851,,,,
707,TmAu3,oP8,Pmmn,-0.7535,mp-568247,-0.72834168,28227,-0.7269042
708,Au51La14,hP68,P6/m,-0.6001,,,,
709,SmCu,cP2,Pm-3m,-0.1285,mp-12586,-0.17435732,,
710,Cu2Sm,oI12,Imma,-0.1731,,,,
711,SmCu6,oP28,Pnma,-0.142,mp-30699,-0.1468077,29800,-0.14585006
712,AgSm,oP8,Pnma,-0.3835,,,,
713,Ag2Sm,,,-0.2498,,,,
714,Ag51Sm14,hP68,P6/m,-0.1741,,,,
715,SmAu,,,-0.7908,,,,
716,Au2Sm,tP106,P4/nmm,-0.7991,,,,
717,Au51Sm14,hP68,P6/m,-0.6198,,,,
718,TbAg,cP2,Pm-3m,-0.3783,mp-2268,-0.32250589,10672,0.00103123
719,DyAg,cP2,Pm-3m,-0.3866,mp-2167,-0.32984297,10365,-0.33555494
720,ErAg,cP2,Pm-3m,-0.4654,mp-2621,-0.33953982,10623,-0.34775013
721,TmAg,cP2,Pm-3m,-0.4457,mp-2796,-0.34526791,10678,-0.35077449
722,PrAg2,oI12,Imma,-0.256,,,27628,-0.28436382
723,NdAg2,oI12,Imma,-0.2259,,,27623,-0.28434503
724,GdAg2,,,-0.2477,,,,
725,TbAg2,,,-0.2353,,,,
726,DyAg2,,,-0.2311,,,,
727,HoAg2,,,-0.2591,,,,
728,ErAg2,tI6,I4/mmm,-0.2487,mp-30339,-0.3325519,10626,-0.341657
729,TmAg2,tI6,I4/mmm,-0.2622,mp-30359,-0.33645216,10679,-0.34547508
730,Ag2Tm,oI12,Imma,-0.2622,,,,
731,LuAg2,tI6,I4/mmm,-0.2653,mp-1018131,-0.34222325,27616,-0.34837039
732,Ag3Tb,hP68,P6/m,-0.2135,,,,
733,Ag3Dy,hP68,P6/m,-0.2363,,,,
734,Ag3Ho,hP68,P6/m,-0.2601,,,,
735,Ag3Er,hP68,P6/m,-0.2633,,,,
736,Ag3Tm,oP8,Pnma,-0.2094,,,,
737,Al5Ni4Rh,cP2,Pm-3m,-0.7684,,,,
738,Al5Ni3Rh2,cP2,Pm-3m,-0.8019,,,,
739,Al5Ni2Rh3,cP2,Pm-3m,-0.8439,,,,
740,Al5NiRh4,cP2,Pm-3m,-1.0331,,,,
741,Ti5Ge3,hP16,P63/mcm,-0.7333,mp-568151,-0.69194752,,
742,V5Ge3,tI32,I4/mcm,-0.4586,,,,
743,Mn5Ge3,hP16,P63/mcm,-0.1884,mp-617291,-0.09905215,,
744,Fe5Ge3,hP6,P63/mmc,-0.1078,,,,
745,Co5Ge3,hP6,P63/mmc,-0.2029,,,,
746,Ni5Ge3,hP6,P63/mmc,-0.3222,,,,
747,Al0.1Ti0.25Zn0.65,cP4,Pm-3m,-0.2798,,,,
748,Al0.2Ti0.25Zn0.55,cP4,Pm-3m,-0.3109,,,,
749,Al0.3Ti0.25Zn0.45,cP4,Pm-3m,-0.3317,,,,
750,Al0.4Ti0.25Zn0.35,cP4,Pm-3m,-0.3524,,,,
751,Al2TiZn,cP4,Pm-3m,-0.3627,,,,
752,Al0.6Ti0.25Zn0.15,cP4,Pm-3m,-0.3731,,,,
753,InPd,cP2,Pm-3m,-0.7151,mp-21215,-0.50914396,55542,-0.50734224
754,In3Pd2,hP5,P-3m1,-0.5908,mp-510437,-0.48537325,11131,-0.48064328
755,Sn2Pd,tI48,I41/acd,-0.5182,mp-1573,-0.38963342,5782,-0.45171323
756,Zr2Co,tI12,I4/mcm,,mp-628,-0.25113077,29534,-0.26078137
757,ZrCo,cP2,Pm-3m,,mp-2283,-0.28187688,29537,-0.28789901
758,ZrCo2,cF24,Fd-3m,,mp-929,-0.30849371,31202,-0.32129482
759,Co4Zr,cF116,Fm-3m,,,,,
760,TiFe,cP2,Pm-3m,,mp-305,-0.41788011,19423,-0.44919251