formula,pearson symbol,space group,e_form expt,mpid,e_form mp,oqmdid,e_form oqmd
Ga0.2Mn0.25Ni0.5Sn0.05,cF16,Fm-3m,-0.2892,,,,
Ce5Pb3,hP16,P63/mcm,-0.7835,,,690179,-0.5320109
Pr5Pb3,hP16,P63/mcm,-0.8001,,,,
Nd5Pb3,hP16,P63/mcm,-0.7773,,,30804,-0.54425795
Sm5Pb3,hP16,P63/mcm,-0.7929,,,,
Gd5Pb3,hP16,P63/mcm,-0.798,,,30399,-0.55242522
Tb5Pb3,hP16,P63/mcm,-0.7379,,,30923,-0.13671797
Dy5Pb3,hP16,P63/mcm,-0.7887,mp-569760,-0.54462748,29904,-0.54011757
Ho5Pb3,hP16,P63/mcm,-0.7452,mp-30730,-0.53146096,17466,-0.53073424
Er5Pb3,hP16,P63/mcm,-0.7794,,,30023,-0.5183237
Tm5Pb3,hP16,P63/mcm,-0.7939,,,30928,-0.49914195
Lu5Pb3,hP16,P63/mcm,-0.7752,,,30697,-0.46361792
Li17Sn4,cF420,F-43m,-0.4156,mp-573471,-0.34836755,22905,-0.35750635
AgCa3,oS36,Cmcm,-0.1223,,,,
Cu2NiSn,cF16,Fm-3m,-0.1461,mp-4367,0.04125642,19462,0.00643917
Cu0.6Ni0.15Sn0.25,cF16,Fm-3m,-0.1213,,,,
Cu0.4Ni0.35Sn0.25,cF16,Fm-3m,-0.1679,,,,
Cu0.3Ni0.45Sn0.25,cF16,Fm-3m,-0.1897,,,,
Cu0.12Ni0.63Sn0.25,oS12,Cmcm,-0.2239,,,,
Cu0.05Ni0.7Sn0.25,hP8,P63/mmc,-0.2415,,,,
Cu0.3Ni0.29Sn0.41,hP6,P63/mmc,-0.229,,,,
Cu0.2Ni0.39Sn0.41,hP6,P63/mmc,-0.2705,,,,
Cu0.1Ni0.49Sn0.41,hP6,P63/mmc,-0.2995,,,,
Cu0.275Ni0.27Sn0.455,hP6,P63/mmc,-0.1886,,,,
Cu0.375Ni0.17Sn0.455,hP6,P63/mmc,-0.1679,,,,
FeGe,hP6,P6/mmm,-0.1613,mp-22478,-0.12579344,647200,-0.12767187
FeGe2,tI12,I4/mcm,-0.3823,mp-21117,-0.06049156,7790,-0.06497736
AlLi,cF16,Fd-3m,-0.2145,mp-1067,-0.17935152,2012,-0.1861232
AlLi,cF16,Fd-3m,,mp-1067,-0.17935152,2012,-0.1861232
Al2Li3,hR15,R-3m,-0.198,mp-16506,-0.18145293,10488,-0.19199537
Al4Li9,mS26,C12/m1,-0.1565,mp-568404,-0.15599208,,
SmMg,cP2,Pm-3m,-0.1917,mp-2558,-0.10785642,90153,-0.1044123
SmMg2,cF24,Fd-3m,-0.1658,mp-529,-0.09464138,17651,-0.09422897
SmMg3,cF16,Fm-3m,-0.1244,mp-30779,-0.110229,17652,-0.10948037
Mg5Sm,cF448,F-43m,-0.0881,,,,
Mg41Sm5,tI92,I4/m,-0.057,,,,
Ni3Ge,cP4,Pm-3m,,mp-21008,-0.2918224,17342,-0.29969984
Ge3Ni5,hP6,P63/mmc,,,,,
Ge2Ni3,hP6,P63/mmc,,,,,
NiGe,oP8,Pnma,,mp-1099,-0.30645184,646855,-0.31421743
AlNd3,hP8,P63/mmc,-0.3131,,,,
NbCr2,cF24,Fd-3m,-0.0301,mp-548,-0.03087492,19373,-0.04063231
NbFe2,hP12,P63/mmc,-0.141,mp-568901,-0.12231512,30227,-0.12212013