formula,pearson symbol,space group,mpid,oqmdid,e_form expt,e_form mp,e_form oqmd
Ga0.2Mn0.25Ni0.5Sn0.05,cF16,Fm-3m,,,-0.2892,,
Ce5Pb3,hP16,P63/mcm,,690179,-0.7835,,-0.5320109
Pr5Pb3,hP16,P63/mcm,,,-0.8001,,
Nd5Pb3,hP16,P63/mcm,,30804,-0.7773,,-0.54425795
Sm5Pb3,hP16,P63/mcm,,,-0.7929,,
Gd5Pb3,hP16,P63/mcm,,30399,-0.798,,-0.55242522
Tb5Pb3,hP16,P63/mcm,,30923,-0.7379,,-0.13671797
Dy5Pb3,hP16,P63/mcm,mp-569760,29904,-0.7887,-0.54462748,-0.54011757
Ho5Pb3,hP16,P63/mcm,mp-30730,17466,-0.7452,-0.53146096,-0.53073424
Er5Pb3,hP16,P63/mcm,,30023,-0.7794,,-0.5183237
Tm5Pb3,hP16,P63/mcm,,30928,-0.7939,,-0.49914195
Lu5Pb3,hP16,P63/mcm,,30697,-0.7752,,-0.46361792
Li17Sn4,cF420,F-43m,mp-573471,22905,-0.4156,-0.34836755,-0.35750635
AgCa3,oS36,Cmcm,,,-0.1223,,
Cu2NiSn,cF16,Fm-3m,mp-4367,19462,-0.1461,0.04125642,0.00643917
Cu0.6Ni0.15Sn0.25,cF16,Fm-3m,,,-0.1213,,
Cu0.4Ni0.35Sn0.25,cF16,Fm-3m,,,-0.1679,,
Cu0.3Ni0.45Sn0.25,cF16,Fm-3m,,,-0.1897,,
Cu0.12Ni0.63Sn0.25,oS12,Cmcm,,,-0.2239,,
Cu0.05Ni0.7Sn0.25,hP8,P63/mmc,,,-0.2415,,
Cu0.3Ni0.29Sn0.41,hP6,P63/mmc,,,-0.229,,
Cu0.2Ni0.39Sn0.41,hP6,P63/mmc,,,-0.2705,,
Cu0.1Ni0.49Sn0.41,hP6,P63/mmc,,,-0.2995,,
Cu0.275Ni0.27Sn0.455,hP6,P63/mmc,,,-0.1886,,
Cu0.375Ni0.17Sn0.455,hP6,P63/mmc,,,-0.1679,,
FeGe,hP6,P6/mmm,mp-22478,647200,-0.1613,-0.12579344,-0.12767187
FeGe2,tI12,I4/mcm,mp-21117,7790,-0.3823,-0.06049156,-0.06497736
AlLi,cF16,Fd-3m,mp-1067,2012,-0.2145,-0.17935152,-0.1861232
AlLi,cF16,Fd-3m,mp-1067,2012,,-0.17935152,-0.1861232
Al2Li3,hR15,R-3m,mp-16506,10488,-0.198,-0.18145293,-0.19199537
Al4Li9,mS26,C12/m1,mp-568404,,-0.1565,-0.15599208,
SmMg,cP2,Pm-3m,mp-2558,90153,-0.1917,-0.10785642,-0.1044123
SmMg2,cF24,Fd-3m,mp-529,17651,-0.1658,-0.09464138,-0.09422897
SmMg3,cF16,Fm-3m,mp-30779,17652,-0.1244,-0.110229,-0.10948037
Mg5Sm,cF448,F-43m,,,-0.0881,,
Mg41Sm5,tI92,I4/m,,,-0.057,,
Ni3Ge,cP4,Pm-3m,mp-21008,17342,,-0.2918224,-0.29969984
Ge3Ni5,hP6,P63/mmc,,,,,
Ge2Ni3,hP6,P63/mmc,,,,,
NiGe,oP8,Pnma,mp-1099,646855,,-0.30645184,-0.31421743
AlNd3,hP8,P63/mmc,,,-0.3131,,
NbCr2,cF24,Fd-3m,mp-548,19373,-0.0301,-0.03087492,-0.04063231
NbFe2,hP12,P63/mmc,mp-568901,30227,-0.141,-0.12231512,-0.12212013